ITEM: TIMESTEP
0
ITEM: NUMBER OF ATOMS
27400
ITEM: BOX BOUNDS pp pp pp
0 120
0 120
0 120
ITEM: ATOMS id type mol x y z bP
0 1 0 36 78 96 -1
1 2 0 37 79 95 -1
2 0 0 36 78 94 -1
3 0 0 35 79 93 -1
4 2 0 36 79 93 -1
5 0 0 36 80 92 -1
6 2 0 36 81 91 -1
7 2 0 36 82 90 -1
8 2 0 37 82 89 -1
9 5 0 37 83 88 -1
ITEM: TIMESTEP
10
ITEM: NUMBER OF ATOMS
27400
ITEM: BOX BOUNDS pp pp pp
0 120
0 120
0 120
ITEM: ATOMS id type mol x y z bP
10 1 0 36 78 96 -1
11 2 0 37 79 95 -1
12 0 0 36 78 94 -1
13 0 0 35 79 93 -1
14 2 0 36 79 93 -1
15 0 0 36 80 92 -1
16 2 0 36 81 91 -1
17 2 0 36 82 90 -1
18 2 0 37 82 89 -1
19 5 0 37 83 88 -1
ITEM: TIMESTEP
20
ITEM: NUMBER OF ATOMS
27400
ITEM: BOX BOUNDS pp pp pp
0 120
0 120
0 120
ITEM: ATOMS id type mol x y z bP
20 1 0 36 78 96 -1
21 2 0 37 79 95 -1
22 0 0 36 78 94 -1
23 0 0 35 79 93 -1
24 2 0 36 79 93 -1
25 0 0 36 80 92 -1
26 2 0 36 81 91 -1
27 2 0 36 82 90 -1
28 2 0 37 82 89 -1
29 5 0 37 83 88 -1
ITEM: TIMESTEP
30
ITEM: NUMBER OF ATOMS
27400
ITEM: BOX BOUNDS pp pp pp
0 120
0 120
0 120
ITEM: ATOMS id type mol x y z bP
30 1 0 36 78 96 -1
31 2 0 37 79 95 -1
32 0 0 36 78 94 -1
33 0 0 35 79 93 -1
34 2 0 36 79 93 -1
35 0 0 36 80 92 -1
36 2 0 36 81 91 -1
37 2 0 36 82 90 -1
38 2 0 37 82 89 -1
39 5 0 37 83 88 -1
